[
   {
      "pretty_formula": "Ag3Li",
      "Unit Cell Composition": " Ag375Li125",
      "Epot [eV/atom]": -11.84001,
      "Ekin [eV/atom]": 0.22029,
      "Etot [eV/atom]": -11.61972,
      "Temp [K]": 1704.22,
      "MSD [angstrom^2]": 0.03297,
      "Self diffusion [angstrom^2/fs]": 2e-05,
      "Pressure [Pa]": 0.04621,
      "Specific_heat [eV/K]": -85.11807,
      "lattice constant a": 3.937,
      "lattice constant b": 3.937,
      "lattice constant c": 3.937,
      "interpolated lattice constant a": 0.0,
      "interpolated lattice constant b": 0.0,
      "interpolated lattice constant c": 0.0,
      "Bulk modulus": 0.0,
      "Cohesive energy": -11.84001,
      "Debye": " ",
      "Lindemann": " ",
      "last_modified": {
            "$date": 1609645242305
      },
      "nperiodic_dimensions": 3,
      "dimension_types": [
            1,
            1,
            1
      ],
      "elements": [
            "Ag",
            "Li"
      ],
      "elements_ratios": [
            0.75,
            0.25
      ],
      "chemsys": "Ag-Li",
      "nelements": 2,
      "species_at_sites": [
            "Ag",
            "Ag",
            "Ag",
            "Li"
      ],
      "formula_anonymous": "A3B",
      "structure_features": [],
      "task_id": " 0010",
      "cartesian_site_positions": [
            [
                  0.0,
                  0.0,
                  0.0
            ],
            [
                  0.0,
                  2.05077,
                  2.05077
            ],
            [
                  2.05077,
                  0.0,
                  2.05077
            ],
            [
                  2.05077,
                  2.05077,
                  0.0
            ]
      ],
      "species": [
            {
                  "chemical_symbols": [
                        "Ag"
                  ],
                  "concentration": [
                        1.0
                  ],
                  "name": "Ag"
            },
            {
                  "chemical_symbols": [
                        "Li"
                  ],
                  "concentration": [
                        1.0
                  ],
                  "name": "Li"
            }
      ],
      "nsites": 4,
      "_id": {
            "$oid": "5ff12eaa8ce1dad4b2c64149"
      }
},{
      "pretty_formula": "Ag3Li",
      "Unit Cell Composition": " Ag375Li125",
      "Epot [eV/atom]": -11.74326,
      "Ekin [eV/atom]": 0.04716,
      "Etot [eV/atom]": -11.69611,
      "Temp [K]": 364.81,
      "MSD [angstrom^2]": 0.01044,
      "Self diffusion [angstrom^2/fs]": 1e-05,
      "Pressure [Pa]": 0.37194,
      "Specific_heat [eV/K]": -27.90751,
      "lattice constant a": 4.02,
      "lattice constant b": 4.02,
      "lattice constant c": 4.02,
      "interpolated lattice constant a": 3.756605771,
      "interpolated lattice constant b": 3.756605771,
      "interpolated lattice constant c": 3.756605771,
      "Bulk modulus": 396.861122024,
      "Cohesive energy": -11.74326,
      "Debye": " ",
      "Lindemann": " ",
      "last_modified": {
            "$date": 1609645242318
      },
      "nperiodic_dimensions": 3,
      "dimension_types": [
            1,
            1,
            1
      ],
      "elements": [
            "Ag",
            "Li"
      ],
      "elements_ratios": [
            0.75,
            0.25
      ],
      "chemsys": "Ag-Li",
      "nelements": 2,
      "species_at_sites": [
            "Ag",
            "Ag",
            "Ag",
            "Li"
      ],
      "formula_anonymous": "A3B",
      "structure_features": [],
      "task_id": " 0011",
      "cartesian_site_positions": [
            [
                  0.0,
                  0.0,
                  0.0
            ],
            [
                  0.0,
                  2.05077,
                  2.05077
            ],
            [
                  2.05077,
                  0.0,
                  2.05077
            ],
            [
                  2.05077,
                  2.05077,
                  0.0
            ]
      ],
      "species": [
            {
                  "chemical_symbols": [
                        "Ag"
                  ],
                  "concentration": [
                        1.0
                  ],
                  "name": "Ag"
            },
            {
                  "chemical_symbols": [
                        "Li"
                  ],
                  "concentration": [
                        1.0
                  ],
                  "name": "Li"
            }
      ],
      "nsites": 4,
      "_id": {
            "$oid": "5ff12eaa8ce1dad4b2c6414a"
      }
},{
      "pretty_formula": "AcAg",
      "Unit Cell Composition": " Ac125Ag125",
      "Epot [eV/atom]": -15.75737,
      "Ekin [eV/atom]": 0.04643,
      "Etot [eV/atom]": -15.71094,
      "Temp [K]": 359.17,
      "MSD [angstrom^2]": 0.01614,
      "Self diffusion [angstrom^2/fs]": 1e-05,
      "Pressure [Pa]": -0.09392,
      "Specific_heat [eV/K]": -4.29307,
      "lattice constant a": 4.054,
      "lattice constant b": 4.054,
      "lattice constant c": 4.054,
      "interpolated lattice constant a": 4.07378782,
      "interpolated lattice constant b": 4.07378782,
      "interpolated lattice constant c": 4.07378782,
      "Bulk modulus": -4973.492583256,
      "Cohesive energy": -15.75737,
      "Debye": " ",
      "Lindemann": " ",
      "last_modified": {
            "$date": 1609645242325
      },
      "nperiodic_dimensions": 3,
      "dimension_types": [
            1,
            1,
            1
      ],
      "elements": [
            "Ac",
            "Ag"
      ],
      "elements_ratios": [
            0.5,
            0.5
      ],
      "chemsys": "Ac-Ag",
      "nelements": 2,
      "species_at_sites": [
            "Ac",
            "Ag"
      ],
      "formula_anonymous": "AB",
      "structure_features": [],
      "task_id": " 0003",
      "cartesian_site_positions": [
            [
                  0.0,
                  0.0,
                  0.0
            ],
            [
                  1.98708,
                  1.98708,
                  1.98708
            ]
      ],
      "species": [
            {
                  "chemical_symbols": [
                        "Ac"
                  ],
                  "concentration": [
                        1.0
                  ],
                  "name": "Ac"
            },
            {
                  "chemical_symbols": [
                        "Ag"
                  ],
                  "concentration": [
                        1.0
                  ],
                  "name": "Ag"
            }
      ],
      "nsites": 2,
      "_id": {
            "$oid": "5ff12eaa8ce1dad4b2c6414b"
      }
}
]